 Gaussian 09, Revision E.01,
 Gaussian 09:  ES64L-G09RevE.01 30-Nov-2015

 ---------------------------------------------------------
 # B3LYP/6-311G(d,p) em=GD3BJ scrf(solvent=water) opt freq
 ---------------------------------------------------------

 ---------------------
 remark line goes here
 ---------------------
 Symbolic Z-matrix:
 Charge =  0 Multiplicity = 1

 SCF Done:  E(RB3LYP) =  -691.955661111     A.U. after   12 cycles
 SCF Done:  E(RB3LYP) =  -691.956397443     A.U. after    9 cycles
 SCF Done:  E(RB3LYP) =  -691.956511876     A.U. after    9 cycles
 SCF Done:  E(RB3LYP) =  -691.956516107     A.U. after    7 cycles
 Optimization completed.
    -- Stationary point found.
 Normal termination of Gaussian 09 at Tue Oct 25 15:36:24 2022.

 ----------------------------------------------------------------------
 #N Geom=AllCheck Guess=TCheck SCRF=Check GenChk RB3LYP/6-311G(d,p) Fre
 q
 ----------------------------------------------------------------------

 Structure from the checkpoint file:  "UNK.chk"
 ---------------------
 remark line goes here
 ---------------------
 Charge =  0 Multiplicity = 1

                         Standard orientation:
 ---------------------------------------------------------------------
 Center     Atomic      Atomic             Coordinates (Angstroms)
 Number     Number       Type             X           Y           Z
 ---------------------------------------------------------------------
      1          6           0       -2.270934   -0.000006    0.000002
      2          6           0       -1.572340   -1.205822   -0.000000
      3          6           0       -0.178815   -1.214922   -0.000002
      4          6           0        0.496730    0.000006   -0.000002
      5          6           0       -0.178828    1.214924   -0.000002
      6          6           0       -1.572350    1.205817    0.000000
      7         17           0        2.263873    0.000002    0.000001
      8          1           0       -3.353935   -0.000013    0.000006
      9          1           0       -2.108031   -2.147521   -0.000000
     10          1           0        0.371724   -2.146353   -0.000001
     11          1           0        0.371697    2.146364   -0.000005
     12          1           0       -2.108063    2.147507    0.000003
 ---------------------------------------------------------------------

 SCF Done:  E(RB3LYP) =  -691.956516107     A.U. after    1 cycles

 The electronic state is 1-A.
 Alpha  occ. eigenvalues -- -101.56199 -10.24397 -10.19136 -10.19134 -10.18843
 Alpha  occ. eigenvalues --  -10.18840 -10.18449  -9.47635  -7.24072  -7.23138
 Alpha  occ. eigenvalues --   -7.23102  -0.90028  -0.84530  -0.76643  -0.74328
 Alpha  occ. eigenvalues --   -0.62673  -0.60823  -0.53314  -0.47693  -0.47353
 Alpha  occ. eigenvalues --   -0.44059  -0.43892  -0.40622  -0.36954  -0.36830
 Alpha  occ. eigenvalues --   -0.34480  -0.32564  -0.27299  -0.25856
 Alpha virt. eigenvalues --   -0.02544  -0.02461   0.01171   0.06025   0.07931
 Alpha virt. eigenvalues --    0.09241   0.12070   0.12738   0.12984   0.22897
 Alpha virt. eigenvalues --    0.22984   0.25453   0.26390   0.27583   0.28508

 Mulliken charges:
               1
     1  C   -0.099293
     2  C   -0.108124
     3  C    0.010717
     4  C   -0.246723
     5  C    0.010717
     6  C   -0.108123
     7  Cl  -0.095815
     8  H    0.120499
     9  H    0.124206
    10  H    0.133866
    11  H    0.133866
    12  H    0.124206
 Sum of Mulliken charges =   0.00000

 Dipole moment (field-independent basis, Debye):
    X=             -2.5539    Y=             -0.0000    Z=              0.0000  Tot=              2.5539
 Quadrupole moment (field-independent basis, Debye-Ang):
   XX=            -46.1626   YY=            -41.4734   ZZ=            -51.6398
   XY=             -0.0001   XZ=             -0.0000   YZ=             -0.0000

  Exact polarizability: 137.565  -0.000 104.639  -0.000   0.000  38.740
 Approx polarizability: 158.650  -0.000 130.145  -0.000   0.000  48.550

                      1                      2                      3
                      A                      A                      A
 Frequencies --    185.7780               297.3942               412.2490
 Red. masses --      5.1457                 5.7582                11.8686
 Frc consts  --      0.1046                 0.3001                 1.1884
 IR Inten    --      0.2744                 0.0916                10.7234

                      4                      5                      6
                      A                      A                      A
 Frequencies --    416.3176               477.6543               627.5888
 Red. masses --      2.9310                 3.2688                 6.4613
 Frc consts  --      0.2993                 0.4394                 1.4994
 IR Inten    --      0.0000                16.0240                 0.5415

                      7                      8                      9
                      A                      A                      A
 Frequencies --    701.5854               703.6139               752.9292
 Red. masses --      2.4004                 6.9544                 1.4639
 Frc consts  --      0.6961                 2.0285                 0.4890
 IR Inten    --     35.7530                55.9157                83.4683

                     10                     11                     12
                      A                      A                      A
 Frequencies --    841.1666               921.6263               985.8456
 Red. masses --      1.2475                 1.3467                 1.3604
 Frc consts  --      0.5201                 0.6739                 0.7790
 IR Inten    --      0.0000                 2.7167                 0.0000

                     13                     14                     15
                      A                      A                      A
 Frequencies --   1012.1805              1015.6257              1040.3389
 Red. masses --      1.2938                 6.4904                 3.2108
 Frc consts  --      0.7810                 3.9445                 2.0475
 IR Inten    --      0.0622                17.7586                41.3789

                     16                     17                     18
                      A                      A                      A
 Frequencies --   1091.5070              1096.9188              1178.2057
 Red. masses --      2.5092                 1.5440                 1.1029
 Frc consts  --      1.7613                 1.0946                 0.9021
 IR Inten    --     61.0214                10.5989                 0.0682

                     19                     20                     21
                      A                      A                      A
 Frequencies --   1192.6920              1318.1758              1342.2505
 Red. masses --      1.1285                 3.9094                 1.5843
 Frc consts  --      0.9459                 4.0023                 1.6817
 IR Inten    --      0.0151                 0.7665                 0.6632

                     22                     23                     24
                      A                      A                      A
 Frequencies --   1476.6635              1506.1657              1619.2556
 Red. masses --      2.1399                 2.0894                 5.5805
 Frc consts  --      2.7492                 2.7926                 8.6209
 IR Inten    --     10.1265                78.9524                38.4083

                     25                     26                     27
                      A                      A                      A
 Frequencies --   1627.2334              3177.2594              3184.8922
 Red. masses --      6.0970                 1.0862                 1.0895
 Frc consts  --      9.5119                 6.4604                 6.5113
 IR Inten    --      5.6982                 0.0876                12.1538

                     28                     29                     30
                      A                      A                      A
 Frequencies --   3196.5132              3204.6053              3207.5148
 Red. masses --      1.0934                 1.0944                 1.0972
 Frc consts  --      6.5827                 6.6216                 6.6506
 IR Inten    --     21.7377                11.8635                 2.6897

 - Thermochemistry -
 -------------------
 Temperature   298.150 Kelvin.  Pressure   1.00000 Atm.
 Atom     1 has atomic number  6 and mass  12.00000

 Molecular mass:   112.00798 amu.
 Principal axes and moments of inertia in atomic units:
                           1         2         3
     Eigenvalues --   317.476771157.106911474.58367
           X            1.00000  -0.00000  -0.00000
           Y            0.00000   1.00000  -0.00000
           Z            0.00000   0.00000   1.00000
 This molecule is an asymmetric top.
 Rotational symmetry number  1.
 Rotational temperatures (Kelvin)      0.27282     0.07485     0.05874
 Rotational constants (GHZ):           5.68464     1.55970     1.22390
 Zero-point vibrational energy     238127.1 (Joules/Mol)
                                   56.91375 (Kcal/Mol)
 Warning -- explicit consideration of   5 degrees of freedom as
           vibrations may cause significant error
 Vibrational temperatures:    267.29   427.88   593.13   598.99   687.24
          (Kelvin)            902.96  1009.42  1012.34  1083.30  1210.25
                             1326.01  1418.41  1456.30  1461.26  1496.81
                             1570.43  1578.22  1695.17  1716.02  1896.56
                             1931.20  2124.59  2167.03  2329.74  2341.22
                             4571.36  4582.34  4599.06  4610.71  4614.89

 Zero-point correction=                           0.090698 (Hartree/Particle)
 Thermal correction to Energy=                    0.096211
 Thermal correction to Enthalpy=                  0.097155
 Thermal correction to Gibbs Free Energy=         0.060901
 Sum of electronic and zero-point Energies=           -691.865818
 Sum of electronic and thermal Energies=              -691.860305
 Sum of electronic and thermal Enthalpies=            -691.859361
 Sum of electronic and thermal Free Energies=         -691.895615

                     E (Thermal)             CV                S
                      KCal/Mol        Cal/Mol-Kelvin    Cal/Mol-Kelvin
 Total                   60.374             21.059             76.303
 Electronic               0.000              0.000              0.000
 Translational            0.889              2.981             40.056
 Rotational               0.889              2.981             27.784
 Vibrational             58.596             15.098              8.463
 Vibration     1          0.632              1.859              2.270
 Vibration     2          0.691              1.679              1.432
 Vibration     3          0.776              1.444              0.919
 Vibration     4          0.780              1.435              0.905
 Vibration     5          0.834              1.300              0.716

 Optimization completed.
    -- Stationary point found.
 Normal termination of Gaussian 09 at Tue Oct 25 15:37:11 2022.
