 Gaussian 09, Revision E.01,
 Gaussian 09:  ES64L-G09RevE.01 30-Nov-2015

 ----------------------------------------------------------------------
 # B3LYP/6-311G(d,p) em=GD3BJ scrf(solvent=water) pop=MK IOp(6/33=2,6/4
 2=6) geom=allcheck guess=read
 ----------------------------------------------------------------------

 Structure from the checkpoint file:  "2_UNK.chk"
 ---------------------
 remark line goes here
 ---------------------
 Charge =  0 Multiplicity = 1

                         Standard orientation:
 ---------------------------------------------------------------------
 Center     Atomic      Atomic             Coordinates (Angstroms)
 Number     Number       Type             X           Y           Z
 ---------------------------------------------------------------------
      1          6           0       -2.270934   -0.000006    0.000002
      2          6           0       -1.572340   -1.205822   -0.000000
      3          6           0       -0.178815   -1.214922   -0.000002
      4          6           0        0.496730    0.000006   -0.000002
      5          6           0       -0.178828    1.214924   -0.000002
      6          6           0       -1.572350    1.205817    0.000000
      7         17           0        2.263873    0.000002    0.000001
      8          1           0       -3.353935   -0.000013    0.000006
      9          1           0       -2.108031   -2.147521   -0.000000
     10          1           0        0.371724   -2.146353   -0.000001
     11          1           0        0.371697    2.146364   -0.000005
     12          1           0       -2.108063    2.147507    0.000003
 ---------------------------------------------------------------------

 SCF Done:  E(RB3LYP) =  -691.956516107     A.U. after    1 cycles

 The electronic state is 1-A.
 Alpha  occ. eigenvalues -- -101.56199 -10.24397 -10.19136 -10.19134 -10.18843
 Alpha  occ. eigenvalues --  -10.18840 -10.18449  -9.47635  -7.24072  -7.23138
 Alpha  occ. eigenvalues --   -7.23102  -0.90028  -0.84530  -0.76643  -0.74328
 Alpha  occ. eigenvalues --   -0.62673  -0.60823  -0.53314  -0.47693  -0.47353
 Alpha  occ. eigenvalues --   -0.44059  -0.43892  -0.40622  -0.36954  -0.36830
 Alpha  occ. eigenvalues --   -0.34480  -0.32564  -0.27299  -0.25856
 Alpha virt. eigenvalues --   -0.02544  -0.02461   0.01171   0.06025   0.07931
 Alpha virt. eigenvalues --    0.09241   0.12070   0.12738   0.12984   0.22897
 Alpha virt. eigenvalues --    0.22984   0.25453   0.26390   0.27583   0.28508

 Mulliken charges:
               1
     1  C   -0.099294
     2  C   -0.108123
     3  C    0.010718
     4  C   -0.246724
     5  C    0.010719
     6  C   -0.108123
     7  Cl  -0.095815
     8  H    0.120499
     9  H    0.124205
    10  H    0.133866
    11  H    0.133865
    12  H    0.124206
 Sum of Mulliken charges =   0.00000

 Dipole moment (field-independent basis, Debye):
    X=             -2.5539    Y=             -0.0000    Z=              0.0000  Tot=              2.5539
 Quadrupole moment (field-independent basis, Debye-Ang):
   XX=            -46.1626   YY=            -41.4734   ZZ=            -51.6398
   XY=             -0.0001   XZ=             -0.0000   YZ=             -0.0000

 ESP charges:
               1
     1  C   -0.096508
     2  C   -0.175269
     3  C   -0.044575
     4  C   -0.010199
     5  C   -0.044574
     6  C   -0.175267
     7  Cl  -0.143549
     8  H    0.134941
     9  H    0.151699
    10  H    0.125802
    11  H    0.125801
    12  H    0.151699
 Sum of ESP charges =   0.00000

 Normal termination of Gaussian 09 at Tue Oct 25 15:39:18 2022.
